<?xml version="1.0" encoding="UTF-8"?>

<!-- generated on 2025-07-29 10:58:42 by Eclipse SUMO sumo Version 1.23.1
<sumoConfiguration xmlns:xsi="http://www.w3.org/2001/XMLSchema-instance" xsi:noNamespaceSchemaLocation="http://sumo.dlr.de/xsd/sumoConfiguration.xsd">

    <input>
        <net-file value="scenario/brussel_rural/osm_withProjParam.net.xml"/>
        <route-files value="scenario/brussel_rural/osm.rou.xml"/>
        <additional-files value="scenario/brussel_rural/osm.poly.xml.gz,scenario/brussel_rural/output.add.xml,scenario/brussel_rural/ potholes.add.xml"/>
    </input>

    <output>
        <statistic-output value="scenario/brussel_rural/stats.xml"/>
    </output>

    <time>
        <step-length value="1.0"/>
    </time>

    <processing>
        <ignore-route-errors value="true"/>
        <tls.actuated.jam-threshold value="30"/>
    </processing>

    <routing>
        <device.rerouting.adaptation-steps value="18"/>
        <device.rerouting.adaptation-interval value="10"/>
    </routing>

    <report>
        <verbose value="true"/>
        <duration-log.statistics value="true"/>
        <no-step-log value="true"/>
    </report>

    <traci_server>
        <remote-port value="47035"/>
    </traci_server>

    <gui_only>
        <gui-settings-file value="scenario/brussel_rural/osm.view.xml"/>
    </gui_only>

</sumoConfiguration>
-->

<meandata xmlns:xsi="http://www.w3.org/2001/XMLSchema-instance" xsi:noNamespaceSchemaLocation="http://sumo.dlr.de/xsd/meandata_file.xsd">
</meandata>
